 Gaussian 16, Revision A.03,
 Gaussian 16:  ES64L-G16RevA.03 25-Dec-2016

 ---------------
 # scan hf/6-31g
 ---------------

 --------------------
 2H2_H2_dummy_input_5
 --------------------
 Symbolic Z-matrix:
 Charge =  0 Multiplicity = 1

 SCF Done:  E(RHF) =  -153.076373366     A.U. after   10 cycles

 The electronic state is 1-A'.
 Alpha  occ. eigenvalues --  -20.54429 -20.54429  -1.33213  -1.33204  -0.69864
 Alpha  occ. eigenvalues --   -0.69859  -0.57279  -0.53810  -0.48511  -0.48506
 Alpha  occ. eigenvalues --   -0.45996
 Alpha virt. eigenvalues --    0.21093   0.21698   0.30575   0.30724   0.31434
 Alpha virt. eigenvalues --    0.91002   1.09389   1.11737   1.15772   1.15910
 Alpha virt. eigenvalues --    1.17874   1.17909   1.21472   1.39311   1.39653

 Mulliken charges:
               1
     1  O   -0.794284
     2  H    0.397238
     3  H    0.397238
     4  O   -0.794284
     5  H    0.397238
     6  H    0.397238
     7  H   -0.000192
     8  H   -0.000192
 Sum of Mulliken charges =  -0.00000

 Dipole moment (field-independent basis, Debye):
    X=             -0.0000    Y=              0.0000    Z=             -0.0000  Tot=              0.0000
 Quadrupole moment (field-independent basis, Debye-Ang):
   XX=             -9.6158   YY=              9.2014   ZZ=            -16.5124
   XY=              0.0000   XZ=              0.0000   YZ=             -0.0000

 SCF Done:  E(RHF) =  -153.076249436     A.U. after    7 cycles
 SCF Done:  E(RHF) =  -153.075875697     A.U. after    7 cycles
 SCF Done:  E(RHF) =  -153.075246292     A.U. after    7 cycles
 SCF Done:  E(RHF) =  -153.074351392     A.U. after    7 cycles
 SCF Done:  E(RHF) =  -153.073177099     A.U. after    7 cycles
 SCF Done:  E(RHF) =  -153.071705309     A.U. after    7 cycles
 SCF Done:  E(RHF) =  -153.069913531     A.U. after    8 cycles
 SCF Done:  E(RHF) =  -153.067774663     A.U. after    8 cycles
 SCF Done:  E(RHF) =  -153.065256727     A.U. after    8 cycles
 SCF Done:  E(RHF) =  -153.088323114     A.U. after    7 cycles
 SCF Done:  E(RHF) =  -153.088967087     A.U. after    7 cycles
 SCF Done:  E(RHF) =  -153.089530869     A.U. after    7 cycles
 SCF Done:  E(RHF) =  -153.090023636     A.U. after    7 cycles
 SCF Done:  E(RHF) =  -153.090453598     A.U. after    7 cycles
 SCF Done:  E(RHF) =  -153.090828088     A.U. after    7 cycles
 SCF Done:  E(RHF) =  -153.091153653     A.U. after    7 cycles
 SCF Done:  E(RHF) =  -153.091436130     A.U. after    7 cycles
 SCF Done:  E(RHF) =  -153.091680719     A.U. after    7 cycles

                         Standard orientation:
 ---------------------------------------------------------------------
 Center     Atomic      Atomic             Coordinates (Angstroms)
 Number     Number       Type             X           Y           Z
 ---------------------------------------------------------------------
      1          8           0        0.000000   -1.818180   -0.000000
      2          1           0        0.792001   -2.378211   -0.000000
      3          1           0       -0.792003   -2.378208   -0.000000
      4          8           0        0.000000    2.781820    0.000000
      5          1           0        0.792001    3.341851    0.000000
      6          1           0       -0.792001    3.341851    0.000000
      7          1           0        0.364980   -4.818200   -0.000000
      8          1           0       -0.364980   -4.818200   -0.000000
 ---------------------------------------------------------------------

 SCF Done:  E(RHF) =  -153.091892044     A.U. after    6 cycles
 Normal termination of Gaussian 16 at Tue Jun 16 23:39:40 2020.
