 Gaussian 16, Revision A.03,
 Gaussian 16:  ES64L-G16RevA.03 25-Dec-2016

 ---------------
 # scan hf/6-31g
 ---------------

 -----------------------------
 2H2_H2_dummy_input_4_reversed
 -----------------------------
 Symbolic Z-matrix:
 Charge =  0 Multiplicity = 1

 SCF Done:  E(RHF) =  -153.072716615     A.U. after   11 cycles

 The electronic state is 1-A'.
 Alpha  occ. eigenvalues --  -20.56991 -20.54737  -1.35677  -1.33866  -0.73744
 Alpha  occ. eigenvalues --   -0.70463  -0.64031  -0.56143  -0.52221  -0.51018
 Alpha  occ. eigenvalues --   -0.48995
 Alpha virt. eigenvalues --    0.16890   0.21079   0.24316   0.30591   0.41825
 Alpha virt. eigenvalues --    0.86370   1.08008   1.10615   1.13941   1.15411
 Alpha virt. eigenvalues --    1.17161   1.17327   1.20454   1.32728   1.39215

 Mulliken charges:
               1
     1  O   -0.811027
     2  H    0.412271
     3  H    0.405643
     4  O   -0.820686
     5  H    0.413390
     6  H    0.409965
     7  H   -0.093750
     8  H    0.084193
 Sum of Mulliken charges =  -0.00000

 Dipole moment (field-independent basis, Debye):
    X=             -2.1549    Y=              3.5195    Z=             -0.0000  Tot=              4.1268
 Quadrupole moment (field-independent basis, Debye-Ang):
   XX=            -11.2416   YY=            -20.5026   ZZ=            -16.4644
   XY=             -4.6291   XZ=              0.0000   YZ=              0.0000

 SCF Done:  E(RHF) =  -153.071485079     A.U. after    9 cycles
 SCF Done:  E(RHF) =  -153.069834757     A.U. after    9 cycles
 SCF Done:  E(RHF) =  -153.067747890     A.U. after    9 cycles
 SCF Done:  E(RHF) =  -153.065201078     A.U. after    9 cycles
 SCF Done:  E(RHF) =  -153.062165092     A.U. after    9 cycles
 SCF Done:  E(RHF) =  -153.058604624     A.U. after    9 cycles
 SCF Done:  E(RHF) =  -153.054477969     A.U. after    9 cycles
 SCF Done:  E(RHF) =  -153.049736636     A.U. after    9 cycles
 SCF Done:  E(RHF) =  -153.044324888     A.U. after    9 cycles
 SCF Done:  E(RHF) =  -153.090926103     A.U. after    7 cycles
 SCF Done:  E(RHF) =  -153.091697061     A.U. after    7 cycles
 SCF Done:  E(RHF) =  -153.092370220     A.U. after    7 cycles
 SCF Done:  E(RHF) =  -153.092956861     A.U. after    7 cycles
 SCF Done:  E(RHF) =  -153.093467051     A.U. after    7 cycles
 SCF Done:  E(RHF) =  -153.093909777     A.U. after    7 cycles
 SCF Done:  E(RHF) =  -153.094293059     A.U. after    7 cycles
 SCF Done:  E(RHF) =  -153.094624056     A.U. after    7 cycles
 SCF Done:  E(RHF) =  -153.094909150     A.U. after    7 cycles

                         Standard orientation:
 ---------------------------------------------------------------------
 Center     Atomic      Atomic             Coordinates (Angstroms)
 Number     Number       Type             X           Y           Z
 ---------------------------------------------------------------------
      1          8           0        0.048000    1.750298   -0.000000
      2          1           0       -0.744000    1.190266   -0.000000
      3          1           0       -0.216002    2.683680   -0.000000
      4          8           0        0.048000   -2.849702    0.000000
      5          1           0       -0.744000   -2.289671    0.000000
      6          1           0        0.840001   -2.289671    0.000000
      7          1           0       -0.316980    4.750318   -0.000000
      8          1           0        0.412980    4.750318   -0.000000
 ---------------------------------------------------------------------

 SCF Done:  E(RHF) =  -153.095154025     A.U. after    7 cycles
 Normal termination of Gaussian 16 at Wed Jul  8 02:53:40 2020.
