 Gaussian 16, Revision A.03,
 Gaussian 16:  ES64L-G16RevA.03 25-Dec-2016

 ---------------
 # scan hf/6-31g
 ---------------

 ---------------------
 2H2O_H2_dummy_input_6
 ---------------------
 Symbolic Z-matrix:
 Charge =  0 Multiplicity = 1

 SCF Done:  E(RHF) =  -153.076373366     A.U. after   10 cycles

 The electronic state is 1-A'.
 Alpha  occ. eigenvalues --  -20.54429 -20.54429  -1.33213  -1.33204  -0.69864
 Alpha  occ. eigenvalues --   -0.69859  -0.57279  -0.53810  -0.48511  -0.48506
 Alpha  occ. eigenvalues --   -0.45996
 Alpha virt. eigenvalues --    0.21093   0.21698   0.30575   0.30724   0.31434
 Alpha virt. eigenvalues --    0.91002   1.09389   1.11737   1.15772   1.15910
 Alpha virt. eigenvalues --    1.17874   1.17909   1.21472   1.39311   1.39653

 Mulliken charges:
               1
     1  O   -0.794284
     2  H    0.397238
     3  H    0.397238
     4  O   -0.794284
     5  H    0.397238
     6  H    0.397238
     7  H   -0.000193
     8  H   -0.000191
 Sum of Mulliken charges =  -0.00000

 Dipole moment (field-independent basis, Debye):
    X=              0.0000    Y=              0.0000    Z=              0.0000  Tot=              0.0000
 Quadrupole moment (field-independent basis, Debye-Ang):
   XX=             -9.6158   YY=              9.2014   ZZ=            -16.5124
   XY=             -0.0000   XZ=              0.0000   YZ=              0.0000

 SCF Done:  E(RHF) =  -153.076249441     A.U. after    7 cycles
 SCF Done:  E(RHF) =  -153.075875720     A.U. after    7 cycles
 SCF Done:  E(RHF) =  -153.075246346     A.U. after    7 cycles
 SCF Done:  E(RHF) =  -153.074351492     A.U. after    7 cycles
 SCF Done:  E(RHF) =  -153.073177261     A.U. after    7 cycles
 SCF Done:  E(RHF) =  -153.071705551     A.U. after    7 cycles
 SCF Done:  E(RHF) =  -153.069913873     A.U. after    8 cycles
 SCF Done:  E(RHF) =  -153.067775128     A.U. after    8 cycles
 SCF Done:  E(RHF) =  -153.065257342     A.U. after    8 cycles
 SCF Done:  E(RHF) =  -153.042777702     A.U. after    8 cycles
 SCF Done:  E(RHF) =  -153.036359310     A.U. after    9 cycles
 SCF Done:  E(RHF) =  -153.029177005     A.U. after    9 cycles
 SCF Done:  E(RHF) =  -153.021144770     A.U. after    9 cycles
 SCF Done:  E(RHF) =  -153.012167236     A.U. after    9 cycles
 SCF Done:  E(RHF) =  -153.002138675     A.U. after    9 cycles
 SCF Done:  E(RHF) =  -152.990941935     A.U. after    9 cycles
 SCF Done:  E(RHF) =  -152.978447321     A.U. after    9 cycles
 SCF Done:  E(RHF) =  -152.964511462     A.U. after    9 cycles

                         Standard orientation:
 ---------------------------------------------------------------------
 Center     Atomic      Atomic             Coordinates (Angstroms)
 Number     Number       Type             X           Y           Z
 ---------------------------------------------------------------------
      1          8           0       -0.000001   -1.945455    0.000000
      2          1           0       -0.792001   -2.505486    0.000000
      3          1           0        0.792002   -2.505483    0.000000
      4          8           0       -0.000001    2.654545   -0.000000
      5          1           0       -0.792001    3.214576   -0.000000
      6          1           0        0.792000    3.214576   -0.000000
      7          1           0       -0.364974   -3.545454    0.000000
      8          1           0        0.364986   -3.545451    0.000000
 ---------------------------------------------------------------------

 SCF Done:  E(RHF) =  -152.948976241     A.U. after    9 cycles
 Normal termination of Gaussian 16 at Mon Nov  4 22:27:21 2019.
