 Gaussian 16, Revision A.03,
 Gaussian 16:  ES64L-G16RevA.03 25-Dec-2016

 ---------------
 # scan hf/6-31g
 ---------------

 --------------------------
 2H2_H2_dummy_input_3_trial
 --------------------------
 Symbolic Z-matrix:
 Charge =  0 Multiplicity = 1

 SCF Done:  E(RHF) =  -153.076373366     A.U. after   10 cycles

 The electronic state is 1-A'.
 Alpha  occ. eigenvalues --  -20.54429 -20.54429  -1.33213  -1.33204  -0.69864
 Alpha  occ. eigenvalues --   -0.69859  -0.57279  -0.53810  -0.48511  -0.48506
 Alpha  occ. eigenvalues --   -0.45996
 Alpha virt. eigenvalues --    0.21093   0.21698   0.30575   0.30724   0.31434
 Alpha virt. eigenvalues --    0.91002   1.09389   1.11737   1.15772   1.15910
 Alpha virt. eigenvalues --    1.17874   1.17909   1.21472   1.39311   1.39653

 Mulliken charges:
               1
     1  O   -0.794284
     2  H    0.397238
     3  H    0.397238
     4  O   -0.794284
     5  H    0.397238
     6  H    0.397238
     7  H   -0.000192
     8  H   -0.000192
 Sum of Mulliken charges =  -0.00000

 Dipole moment (field-independent basis, Debye):
    X=             -0.0000    Y=              0.0000    Z=             -0.0000  Tot=              0.0000
 Quadrupole moment (field-independent basis, Debye-Ang):
   XX=             -9.6158   YY=              9.2014   ZZ=            -16.5124
   XY=              0.0000   XZ=              0.0000   YZ=             -0.0000

 SCF Done:  E(RHF) =  -153.076249434     A.U. after    7 cycles
 SCF Done:  E(RHF) =  -153.075875694     A.U. after    7 cycles
 SCF Done:  E(RHF) =  -153.075246288     A.U. after    7 cycles
 SCF Done:  E(RHF) =  -153.074351386     A.U. after    7 cycles
 SCF Done:  E(RHF) =  -153.073177091     A.U. after    7 cycles
 SCF Done:  E(RHF) =  -153.071705300     A.U. after    7 cycles
 SCF Done:  E(RHF) =  -153.069913520     A.U. after    8 cycles
 SCF Done:  E(RHF) =  -153.067774651     A.U. after    8 cycles
 SCF Done:  E(RHF) =  -153.065256713     A.U. after    8 cycles
 SCF Done:  E(RHF) =  -153.081848675     A.U. after   10 cycles
 SCF Done:  E(RHF) =  -153.081732761     A.U. after    8 cycles
 SCF Done:  E(RHF) =  -153.081382719     A.U. after    8 cycles
 SCF Done:  E(RHF) =  -153.080791619     A.U. after    8 cycles
 SCF Done:  E(RHF) =  -153.079947819     A.U. after    8 cycles
 SCF Done:  E(RHF) =  -153.078834842     A.U. after    8 cycles
 SCF Done:  E(RHF) =  -153.077431209     A.U. after    9 cycles
 SCF Done:  E(RHF) =  -153.075710249     A.U. after    9 cycles
 SCF Done:  E(RHF) =  -153.073639907     A.U. after    9 cycles

                         Standard orientation:
 ---------------------------------------------------------------------
 Center     Atomic      Atomic             Coordinates (Angstroms)
 Number     Number       Type             X           Y           Z
 ---------------------------------------------------------------------
      1          8           0        0.000000   -2.268181    0.000000
      2          1           0        0.792001   -2.828212    0.000000
      3          1           0       -0.792003   -2.828209    0.000000
      4          8           0        0.000000    2.331819   -0.000000
      5          1           0        0.792001    2.891850   -0.000000
      6          1           0       -0.792001    2.891850   -0.000000
      7          1           0        0.000000   -0.683171    0.000000
      8          1           0        0.000000    0.046789   -0.000000
 ---------------------------------------------------------------------

 SCF Done:  E(RHF) =  -153.071182539     A.U. after    9 cycles
 Normal termination of Gaussian 16 at Mon Jun 22 11:33:56 2020.
