 Gaussian 16, Revision A.03,
 Gaussian 16:  ES64L-G16RevA.03 25-Dec-2016

 ---------------
 # scan hf/6-31g
 ---------------

 ----------------
 2H2O_argon_input
 ----------------
 Symbolic Z-matrix:
 Charge =  0 Multiplicity = 1

 SCF Done:  E(RHF) =  -678.674112315     A.U. after   10 cycles

 The electronic state is 1-A'.
 Alpha  occ. eigenvalues -- -118.48747 -20.54038 -20.54037 -12.21350  -9.46392
 Alpha  occ. eigenvalues --   -9.46373  -9.46304  -1.33674  -1.33498  -1.18171
 Alpha  occ. eigenvalues --   -0.70071  -0.69990  -0.61494  -0.54140  -0.51682
 Alpha  occ. eigenvalues --   -0.50047  -0.48793  -0.46903  -0.39832
 Alpha virt. eigenvalues --    0.21357   0.22100   0.30627   0.30641   0.77550
 Alpha virt. eigenvalues --    0.77626   0.80477   1.00170   1.08910   1.16017
 Alpha virt. eigenvalues --    1.16253   1.16553   1.17391   1.21680   1.34488

 Mulliken charges:
               1
     1  O   -0.797407
     2  H    0.395999
     3  H    0.395999
     4  O   -0.797406
     5  H    0.395999
     6  H    0.395999
     7  Ar   0.010816
 Sum of Mulliken charges =  -0.00000

 Dipole moment (field-independent basis, Debye):
    X=             -0.0000    Y=              0.0000    Z=              0.0000  Tot=              0.0000
 Quadrupole moment (field-independent basis, Debye-Ang):
   XX=            -19.7276   YY=             -1.4755   ZZ=            -26.1772
   XY=              0.0000   XZ=             -0.0000   YZ=             -0.0000

 SCF Done:  E(RHF) =  -678.673497723     A.U. after    9 cycles
 SCF Done:  E(RHF) =  -678.671642911     A.U. after    9 cycles
 SCF Done:  E(RHF) =  -678.668514620     A.U. after    9 cycles
 SCF Done:  E(RHF) =  -678.664056946     A.U. after    9 cycles
 SCF Done:  E(RHF) =  -678.658190653     A.U. after    9 cycles
 SCF Done:  E(RHF) =  -678.650812234     A.U. after    9 cycles
 SCF Done:  E(RHF) =  -678.641792767     A.U. after    9 cycles
 SCF Done:  E(RHF) =  -678.630976622     A.U. after    9 cycles
 SCF Done:  E(RHF) =  -678.618180101     A.U. after    9 cycles
 SCF Done:  E(RHF) =  -678.507647778     A.U. after    9 cycles
 SCF Done:  E(RHF) =  -678.476158095     A.U. after    9 cycles
 SCF Done:  E(RHF) =  -678.440587322     A.U. after    9 cycles
 SCF Done:  E(RHF) =  -678.400447981     A.U. after    9 cycles
 SCF Done:  E(RHF) =  -678.355206635     A.U. after    9 cycles
 SCF Done:  E(RHF) =  -678.304284764     A.U. after    9 cycles
 SCF Done:  E(RHF) =  -678.247063078     A.U. after   10 cycles
 SCF Done:  E(RHF) =  -678.182892035     A.U. after   10 cycles
 SCF Done:  E(RHF) =  -678.111113920     A.U. after   10 cycles

                         Standard orientation:
 ---------------------------------------------------------------------
 Center     Atomic      Atomic             Coordinates (Angstroms)
 Number     Number       Type             X           Y           Z
 ---------------------------------------------------------------------
      1          8           0        0.000000   -0.452641   -0.000000
      2          1           0        0.792001   -1.012672   -0.000000
      3          1           0       -0.792003   -1.012669   -0.000000
      4          8           0        0.000000    4.147359    0.000000
      5          1           0        0.792001    4.707390    0.000000
      6          1           0       -0.792001    4.707390    0.000000
      7         18           0        0.000000   -2.052621   -0.000000
 ---------------------------------------------------------------------

 SCF Done:  E(RHF) =  -678.031107725     A.U. after   11 cycles
 Normal termination of Gaussian 16 at Tue Jun 16 23:12:45 2020.
