 Gaussian 16, Revision A.03,
 Gaussian 16:  ES64L-G16RevA.03 25-Dec-2016

 ---------------
 # scan hf/6-31g
 ---------------

 --------------------
 2H2_H2_dummy_input_2
 --------------------
 Symbolic Z-matrix:
 Charge =  0 Multiplicity = 1

 SCF Done:  E(RHF) =  -152.990795991     A.U. after   11 cycles

 The electronic state is 1-A'.
 Alpha  occ. eigenvalues --  -20.55048 -20.54254  -1.35875  -1.32814  -0.71903
 Alpha  occ. eigenvalues --   -0.69495  -0.67731  -0.53023  -0.50765  -0.48128
 Alpha  occ. eigenvalues --   -0.36083
 Alpha virt. eigenvalues --    0.21172   0.21935   0.29319   0.30928   0.31250
 Alpha virt. eigenvalues --    0.81136   1.09633   1.15433   1.15617   1.16044
 Alpha virt. eigenvalues --    1.16645   1.18324   1.27636   1.38584   1.38983

 Mulliken charges:
               1
     1  O   -0.772451
     2  H    0.393844
     3  H    0.393844
     4  O   -0.793518
     5  H    0.396996
     6  H    0.396996
     7  H   -0.007855
     8  H   -0.007856
 Sum of Mulliken charges =  -0.00000

 Dipole moment (field-independent basis, Debye):
    X=             -0.0000    Y=             -0.3596    Z=              0.0000  Tot=              0.3596
 Quadrupole moment (field-independent basis, Debye-Ang):
   XX=             -9.8657   YY=              8.9274   ZZ=            -16.6329
   XY=              0.0000   XZ=              0.0000   YZ=             -0.0000

 SCF Done:  E(RHF) =  -153.002080504     A.U. after    9 cycles
 SCF Done:  E(RHF) =  -153.012138096     A.U. after    9 cycles
 SCF Done:  E(RHF) =  -153.021082882     A.U. after    9 cycles
 SCF Done:  E(RHF) =  -153.029021326     A.U. after    9 cycles
 SCF Done:  E(RHF) =  -153.036051658     A.U. after    9 cycles
 SCF Done:  E(RHF) =  -153.042263712     A.U. after    9 cycles
 SCF Done:  E(RHF) =  -153.047739039     A.U. after    9 cycles
 SCF Done:  E(RHF) =  -153.052551216     A.U. after    8 cycles
 SCF Done:  E(RHF) =  -153.056766252     A.U. after    8 cycles
 SCF Done:  E(RHF) =  -152.994432799     A.U. after   11 cycles
 SCF Done:  E(RHF) =  -153.006356237     A.U. after   10 cycles
 SCF Done:  E(RHF) =  -153.016903308     A.U. after   10 cycles
 SCF Done:  E(RHF) =  -153.026226495     A.U. after    9 cycles
 SCF Done:  E(RHF) =  -153.034456253     A.U. after    9 cycles
 SCF Done:  E(RHF) =  -153.041706215     A.U. after    9 cycles
 SCF Done:  E(RHF) =  -153.048076825     A.U. after    9 cycles
 SCF Done:  E(RHF) =  -153.053657847     A.U. after    9 cycles
 SCF Done:  E(RHF) =  -153.058530069     A.U. after    9 cycles

                         Standard orientation:
 ---------------------------------------------------------------------
 Center     Atomic      Atomic             Coordinates (Angstroms)
 Number     Number       Type             X           Y           Z
 ---------------------------------------------------------------------
      1          8           0        0.000000   -2.259090   -0.000000
      2          1           0        0.792001   -2.819121   -0.000000
      3          1           0       -0.792003   -2.819118   -0.000000
      4          8           0        0.000000    2.340910    0.000000
      5          1           0        0.792001    2.900941    0.000000
      6          1           0       -0.792001    2.900941    0.000000
      7          1           0        0.000000   -0.044120   -0.000000
      8          1           0        0.000000   -0.774080   -0.000000
 ---------------------------------------------------------------------

 SCF Done:  E(RHF) =  -153.062766433     A.U. after    9 cycles
 Normal termination of Gaussian 16 at Thu Jun 25 12:40:58 2020.
