 Gaussian 16, Revision A.03,
 Gaussian 16:  ES64L-G16RevA.03 25-Dec-2016

 -------------------------
 # opt=(Z-matrix) hf/6-31g
 -------------------------

 -------------------
 2H2O_H2_dummy_input
 -------------------
 Symbolic Z-matrix:
 Charge =  0 Multiplicity = 1

 SCF Done:  E(RHF) =  -153.076373366     A.U. after   10 cycles
 Optimization completed.
    -- Stationary point found.
 SCF Done:  E(RHF) =  -153.075547929     A.U. after    8 cycles
 Optimization completed.
 SCF Done:  E(RHF) =  -153.072985734     A.U. after    8 cycles
 SCF Done:  E(RHF) =  -153.068423444     A.U. after    9 cycles
 SCF Done:  E(RHF) =  -153.061402904     A.U. after    9 cycles
 SCF Done:  E(RHF) =  -153.051241387     A.U. after    9 cycles
 SCF Done:  E(RHF) =  -153.036989615     A.U. after    9 cycles
 SCF Done:  E(RHF) =  -153.017382594     A.U. after    9 cycles
 SCF Done:  E(RHF) =  -152.990802174     A.U. after    9 cycles
 SCF Done:  E(RHF) =  -152.955298871     A.U. after   10 cycles
    -- Stationary point found.
 SCF Done:  E(RHF) =  -152.908769477     A.U. after   10 cycles
 Optimization completed.
    -- Stationary point found.

                         Standard orientation:
 ---------------------------------------------------------------------
 Center     Atomic      Atomic             Coordinates (Angstroms)
 Number     Number       Type             X           Y           Z
 ---------------------------------------------------------------------
      1          8           0        0.000000   -2.390909    0.000000
      2          1           0        0.792001   -2.950941    0.000000
      3          1           0       -0.792003   -2.950937    0.000000
      4          8           0        0.000000    2.209091   -0.000000
      5          1           0        0.792001    2.769122   -0.000000
      6          1           0       -0.792001    2.769122   -0.000000
      7          1           0        0.364980    0.909091   -0.000000
      8          1           0       -0.364980    0.909091   -0.000000
 ---------------------------------------------------------------------

 The electronic state is 1-A'.
 Alpha  occ. eigenvalues --  -20.56501 -20.54115  -1.39057  -1.32672  -0.74655
 Alpha  occ. eigenvalues --   -0.74257  -0.69351  -0.53327  -0.52833  -0.47980
 Alpha  occ. eigenvalues --   -0.30245
 Alpha virt. eigenvalues --    0.21158   0.22039   0.27751   0.30830   0.31181
 Alpha virt. eigenvalues --    0.78891   1.09800   1.13401   1.14836   1.16160
 Alpha virt. eigenvalues --    1.17436   1.18471   1.25928   1.37369   1.40527

 Mulliken charges:
               1
     1  O   -0.792899
     2  H    0.396399
     3  H    0.396399
     4  O   -0.726033
     5  H    0.384656
     6  H    0.384656
     7  H   -0.021589
     8  H   -0.021589
 Sum of Mulliken charges =  -0.00000

 Dipole moment (field-independent basis, Debye):
    X=             -0.0000    Y=              0.5237    Z=             -0.0000  Tot=              0.5237
 Quadrupole moment (field-independent basis, Debye-Ang):
   XX=            -10.2209   YY=              8.6567   ZZ=            -16.7844
   XY=              0.0000   XZ=              0.0000   YZ=             -0.0000

 Normal termination of Gaussian 16 at Sun Nov  3 21:45:56 2019.
