 Gaussian 16, Revision A.03,
 Gaussian 16:  ES64L-G16RevA.03 25-Dec-2016

 --------------------------
 # scan B3LYP/6-311+G(2d,p)
 --------------------------

 ------
 2water
 ------
 Symbolic Z-matrix:
 Charge =  0 Multiplicity = 1

 SCF Done:  E(RB3LYP) =  -152.916076064     A.U. after    9 cycles

 The electronic state is 1-A'.
 Alpha  occ. eigenvalues --  -19.12304 -19.12304  -1.00620  -1.00619  -0.53770
 Alpha  occ. eigenvalues --   -0.53767  -0.37984  -0.37845  -0.31182  -0.31158
 Alpha virt. eigenvalues --    0.02362   0.02777   0.10070   0.10107   0.13963
 Alpha virt. eigenvalues --    0.15031   0.15987   0.17227   0.18988   0.20551
 Alpha virt. eigenvalues --    0.22756   0.25347   0.47646   0.47912   0.48451

 Mulliken charges:
               1
     1  O   -0.553168
     2  H    0.276584
     3  H    0.276584
     4  O   -0.553167
     5  H    0.276583
     6  H    0.276583
 Sum of Mulliken charges =  -0.00000

 Dipole moment (field-independent basis, Debye):
    X=             -0.0000    Y=              0.0000    Z=             -0.0000  Tot=              0.0000
 Quadrupole moment (field-independent basis, Debye-Ang):
   XX=             -8.4562   YY=              5.8160   ZZ=            -15.7234
   XY=              0.0000   XZ=              0.0000   YZ=              0.0000

 SCF Done:  E(RB3LYP) =  -152.916455091     A.U. after    7 cycles
 SCF Done:  E(RB3LYP) =  -152.916742452     A.U. after    7 cycles
 SCF Done:  E(RB3LYP) =  -152.916962283     A.U. after    6 cycles
 SCF Done:  E(RB3LYP) =  -152.917132082     A.U. after    6 cycles
 SCF Done:  E(RB3LYP) =  -152.917265085     A.U. after    6 cycles
 SCF Done:  E(RB3LYP) =  -152.917369831     A.U. after    6 cycles
 SCF Done:  E(RB3LYP) =  -152.917453474     A.U. after    6 cycles
 SCF Done:  E(RB3LYP) =  -152.917521075     A.U. after    6 cycles
 SCF Done:  E(RB3LYP) =  -152.917576321     A.U. after    6 cycles
 SCF Done:  E(RB3LYP) =  -152.917660001     A.U. after    5 cycles
 SCF Done:  E(RB3LYP) =  -152.917691971     A.U. after    5 cycles
 SCF Done:  E(RB3LYP) =  -152.917719044     A.U. after    5 cycles
 SCF Done:  E(RB3LYP) =  -152.917742118     A.U. after    5 cycles
 SCF Done:  E(RB3LYP) =  -152.917761906     A.U. after    5 cycles
 SCF Done:  E(RB3LYP) =  -152.917778971     A.U. after    5 cycles
 SCF Done:  E(RB3LYP) =  -152.917793765     A.U. after    5 cycles
 SCF Done:  E(RB3LYP) =  -152.917806654     A.U. after    5 cycles
 SCF Done:  E(RB3LYP) =  -152.917817932     A.U. after    5 cycles

                         Standard orientation:
 ---------------------------------------------------------------------
 Center     Atomic      Atomic             Coordinates (Angstroms)
 Number     Number       Type             X           Y           Z
 ---------------------------------------------------------------------
      1          8           0        0.000000   -6.189000    0.000000
      2          1           0        0.792001   -6.749031   -0.000000
      3          1           0       -0.792003   -6.749028    0.000000
      4          8           0        0.000000    6.189000   -0.000000
      5          1           0        0.792001    6.749031   -0.000000
      6          1           0       -0.792000    6.749031    0.000000
 ---------------------------------------------------------------------

 SCF Done:  E(RB3LYP) =  -152.917827845     A.U. after    5 cycles
 Normal termination of Gaussian 16 at Tue Nov 24 04:16:20 2020.
